(written by ASE)

30000 atoms
2 atom types

0.0                      20  xlo xhi
0.0                      20  ylo yhi
0.0                      20  zlo zhi

Atoms # full

     1   0   1   0.0                -42.3705                -41.0565               -117.1815
     2   0   1   0.0                -42.3705                -41.0565     -115.90649999999999
     3   0   2   0.0     -41.701500000000003                -40.2395      137.18049999999999
     4   0   2   0.0                -35.6295                -36.9435      137.18049999999999
     5   0   2   0.0     -41.701500000000003                -40.2395               -115.2685
     6   0   2   0.0                -35.6295                -36.9435               -115.2685
     7   0   1   0.0                -42.3705                -41.0565               -114.6315
     8   0   1   0.0                -42.3705                -41.0565               -113.3565
     9   0   2   0.0     -41.701500000000003                -40.2395     -115.26949999999999
    10   0   2   0.0                -35.6295                -36.9435     -115.26949999999999
    11   0   2   0.0     -41.701500000000003                -40.2395     -112.71850000000001
    12   0   2   0.0                -35.6295                -36.9435     -112.71850000000001
    13   0   1   0.0                -42.3705                -41.0565     -112.08150000000001
    14   0   1   0.0                -42.3705                -41.0565               -110.8065
    15   0   2   0.0     -41.701500000000003                -40.2395               -112.7195
    16   0   2   0.0                -35.6295                -36.9435               -112.7195
    17   0   2   0.0     -41.701500000000003                -40.2395     -110.16849999999999
    18   0   2   0.0                -35.6295                -36.9435     -110.16849999999999
    19   0   1   0.0                -42.3705                -41.0565     -109.53149999999999
    20   0   1   0.0                -42.3705                -41.0565               -108.2565
    21   0   2   0.0     -41.701500000000003                -40.2395               -110.1695
    22   0   2   0.0                -35.6295                -36.9435               -110.1695
    23   0   2   0.0     -41.701500000000003                -40.2395               -107.6185
    24   0   2   0.0                -35.6295                -36.9435               -107.6185
    25   0   1   0.0                -42.3705                -41.0565               -106.9815
    26   0   1   0.0                -42.3705                -41.0565     -105.70650000000001
    27   0   2   0.0     -41.701500000000003                -40.2395               -107.6195
    28   0   2   0.0                -35.6295                -36.9435               -107.6195
    29   0   2   0.0     -41.701500000000003                -40.2395               -105.0685
    30   0   2   0.0                -35.6295                -36.9435               -105.0685
    31   0   1   0.0                -42.3705                -41.0565               -104.4315
    32   0   1   0.0                -42.3705                -41.0565     -103.15649999999999
    33   0   2   0.0     -41.701500000000003                -40.2395     -105.06950000000001
    34   0   2   0.0                -35.6295                -36.9435     -105.06950000000001
    35   0   2   0.0     -41.701500000000003                -40.2395               -102.5185
    36   0   2   0.0                -35.6295                -36.9435               -102.5185
    37   0   1   0.0                -42.3705                -41.0565               -101.8815
    38   0   1   0.0                -42.3705                -41.0565               -100.6065
    39   0   2   0.0     -41.701500000000003                -40.2395     -102.51949999999999
    40   0   2   0.0                -35.6295                -36.9435     -102.51949999999999
    41   0   2   0.0     -41.701500000000003                -40.2395     -99.968500000000006
    42   0   2   0.0                -35.6295                -36.9435     -99.968500000000006
    43   0   1   0.0                -42.3705                -41.0565     -99.331499999999991
    44   0   1   0.0                -42.3705                -41.0565                -98.0565
    45   0   2   0.0     -41.701500000000003                -40.2395     -99.969499999999996
    46   0   2   0.0                -35.6295                -36.9435     -99.969499999999996
    47   0   2   0.0     -41.701500000000003                -40.2395     -97.418499999999995
    48   0   2   0.0                -35.6295                -36.9435     -97.418499999999995
    49   0   1   0.0                -42.3705                -41.0565     -96.781499999999994
    50   0   1   0.0                -42.3705                -41.0565     -95.506500000000003
    51   0   2   0.0     -41.701500000000003                -40.2395     -97.419499999999999
    52   0   2   0.0                -35.6295                -36.9435     -97.419499999999999
    53   0   2   0.0     -41.701500000000003                -40.2395     -94.868499999999997
    54   0   2   0.0                -35.6295                -36.9435     -94.868499999999997
    55   0   1   0.0                -42.3705                -41.0565     -94.231500000000011
    56   0   1   0.0                -42.3705                -41.0565     -92.956500000000005
    57   0   2   0.0     -41.701500000000003                -40.2395     -94.869500000000002
    58   0   2   0.0                -35.6295                -36.9435     -94.869500000000002
    59   0   2   0.0     -41.701500000000003                -40.2395                -92.3185
    60   0   2   0.0                -35.6295                -36.9435                -92.3185
    61   0   1   0.0                -42.3705                -41.0565                -91.6815
    62   0   1   0.0                -42.3705                -41.0565     -90.406499999999994
    63   0   2   0.0     -41.701500000000003                -40.2395     -92.319500000000005
    64   0   2   0.0                -35.6295                -36.9435     -92.319500000000005
    65   0   2   0.0     -41.701500000000003                -40.2395     -89.768499999999989
    66   0   2   0.0                -35.6295                -36.9435     -89.768499999999989
    67   0   1   0.0                -42.3705                -41.0565     -89.131500000000003
    68   0   1   0.0                -42.3705                -41.0565     -87.856499999999997
    69   0   2   0.0     -41.701500000000003                -40.2395     -89.769499999999994
    70   0   2   0.0                -35.6295                -36.9435     -89.769499999999994
    71   0   2   0.0     -41.701500000000003                -40.2395     -87.218500000000006
    72   0   2   0.0                -35.6295                -36.9435     -87.218500000000006
    73   0   1   0.0                -42.3705                -41.0565     -86.581500000000005
    74   0   1   0.0                -42.3705                -41.0565                -85.3065
    75   0   2   0.0     -41.701500000000003                -40.2395     -87.219500000000011
    76   0   2   0.0                -35.6295                -36.9435     -87.219500000000011
    77   0   2   0.0     -41.701500000000003                -40.2395     -84.668499999999995
    78   0   2   0.0                -35.6295                -36.9435     -84.668499999999995
    79   0   1   0.0                -42.3705                -41.0565     -84.031499999999994
    80   0   1   0.0                -42.3705                -41.0565     -82.756500000000003
    81   0   2   0.0     -41.701500000000003                -40.2395     -84.669499999999999
    82   0   2   0.0                -35.6295                -36.9435     -84.669499999999999
    83   0   2   0.0     -41.701500000000003                -40.2395     -82.118500000000012
    84   0   2   0.0                -35.6295                -36.9435     -82.118500000000012
    85   0   1   0.0                -42.3705                -41.0565     -81.481499999999983
    86   0   1   0.0                -42.3705                -41.0565     -80.206499999999991
    87   0   2   0.0     -41.701500000000003                -40.2395     -82.119499999999988
    88   0   2   0.0                -35.6295                -36.9435     -82.119499999999988
    89   0   2   0.0     -41.701500000000003                -40.2395                -79.5685
    90   0   2   0.0                -35.6295                -36.9435                -79.5685
    91   0   1   0.0                -42.3705                -41.0565                -78.9315
    92   0   1   0.0                -42.3705                -41.0565     -77.656499999999994
    93   0   2   0.0     -41.701500000000003                -40.2395     -79.569500000000005
    94   0   2   0.0                -35.6295                -36.9435     -79.569500000000005
    95   0   2   0.0     -41.701500000000003                -40.2395     -77.018500000000003
    96   0   2   0.0                -35.6295                -36.9435     -77.018500000000003
    97   0   1   0.0                -42.3705                -41.0565     -76.381499999999988
    98   0   1   0.0                -42.3705                -41.0565     -75.106500000000011
    99   0   2   0.0     -41.701500000000003                -40.2395     -77.019499999999994
   100   0   2   0.0                -35.6295                -36.9435     -77.019499999999994
   101   0   2   0.0     -41.701500000000003                -40.2395     -74.468500000000006
   102   0   2   0.0                -35.6295                -36.9435     -74.468500000000006
   103   0   1   0.0                -42.3705                -41.0565     -73.831499999999991
   104   0   1   0.0                -42.3705                -41.0565                -72.5565
   105   0   2   0.0     -41.701500000000003                -40.2395     -74.469499999999996
   106   0   2   0.0                -35.6295                -36.9435     -74.469499999999996
   107   0   2   0.0     -41.701500000000003                -40.2395     -71.918499999999995
   108   0   2   0.0                -35.6295                -36.9435     -71.918499999999995
   109   0   1   0.0                -42.3705                -41.0565     -71.281500000000008
   110   0   1   0.0                -42.3705                -41.0565     -70.006500000000003
   111   0   2   0.0     -41.701500000000003                -40.2395     -71.919499999999999
   112   0   2   0.0                -35.6295                -36.9435     -71.919499999999999
   113   0   2   0.0     -41.701500000000003                -40.2395     -69.368500000000012
   114   0   2   0.0                -35.6295                -36.9435     -69.368500000000012
   115   0   1   0.0                -42.3705                -41.0565     -68.731499999999997
   116   0   1   0.0                -42.3705                -41.0565     -67.456500000000005
   117   0   2   0.0     -41.701500000000003                -40.2395     -69.369499999999988
   118   0   2   0.0                -35.6295                -36.9435     -69.369499999999988
   119   0   2   0.0     -41.701500000000003                -40.2395                -66.8185
   120   0   2   0.0                -35.6295                -36.9435                -66.8185
   121   0   1   0.0                -42.3705                -41.0565                -66.1815
   122   0   1   0.0                -42.3705                -41.0565     -64.906499999999994
   123   0   2   0.0     -41.701500000000003                -40.2395     -66.819500000000005
   124   0   2   0.0                -35.6295                -36.9435     -66.819500000000005
   125   0   2   0.0     -41.701500000000003                -40.2395     -64.268499999999989
   126   0   2   0.0                -35.6295                -36.9435     -64.268499999999989
   127   0   1   0.0                -42.3705                -41.0565      -63.63150000000001
   128   0   1   0.0                -42.3705                -41.0565     -62.356500000000004
   129   0   2   0.0     -41.701500000000003                -40.2395     -64.269499999999994
   130   0   2   0.0                -35.6295                -36.9435     -64.269499999999994
   131   0   2   0.0     -41.701500000000003                -40.2395     -61.718500000000006
   132   0   2   0.0                -35.6295                -36.9435     -61.718500000000006
   133   0   1   0.0                -42.3705                -41.0565     -61.081499999999998
   134   0   1   0.0                -42.3705                -41.0565     -59.806500000000007
   135   0   2   0.0     -41.701500000000003                -40.2395     -61.719499999999996
   136   0   2   0.0                -35.6295                -36.9435     -61.719499999999996
   137   0   2   0.0     -41.701500000000003                -40.2395     -59.168500000000009
   138   0   2   0.0                -35.6295                -36.9435     -59.168500000000009
   139   0   1   0.0                -42.3705                -41.0565     -58.531499999999994
   140   0   1   0.0                -42.3705                -41.0565     -57.256499999999996
   141   0   2   0.0     -41.701500000000003                -40.2395     -59.169499999999999
   142   0   2   0.0                -35.6295                -36.9435     -59.169499999999999
   143   0   2   0.0     -41.701500000000003                -40.2395     -56.618499999999997
   144   0   2   0.0                -35.6295                -36.9435     -56.618499999999997
   145   0   1   0.0                -42.3705                -41.0565     -55.981500000000004
   146   0   1   0.0                -42.3705                -41.0565     -54.706500000000005
   147   0   2   0.0     -41.701500000000003                -40.2395     -56.619500000000002
   148   0   2   0.0                -35.6295                -36.9435     -56.619500000000002
   149   0   2   0.0     -41.701500000000003                -40.2395     -54.068500000000007
   150   0   2   0.0                -35.6295                -36.9435     -54.068500000000007
   151   0   1   0.0                -42.3705                -41.0565     -53.431500000000007
   152   0   1   0.0                -42.3705                -41.0565     -52.156500000000008
   153   0   2   0.0     -41.701500000000003                -40.2395     -54.069499999999998
   154   0   2   0.0                -35.6295                -36.9435     -54.069499999999998
   155   0   2   0.0     -41.701500000000003                -40.2395     -51.518500000000003
   156   0   2   0.0                -35.6295                -36.9435     -51.518500000000003
   157   0   1   0.0                -42.3705                -41.0565     -50.881499999999988
   158   0   1   0.0                -42.3705                -41.0565     -49.606499999999983
   159   0   2   0.0     -41.701500000000003                -40.2395     -51.519499999999994
   160   0   2   0.0                -35.6295                -36.9435     -51.519499999999994
   161   0   2   0.0     -41.701500000000003                -40.2395     -48.968499999999992
   162   0   2   0.0                -35.6295                -36.9435     -48.968499999999992
   163   0   1   0.0                -42.3705                -41.0565     -48.331500000000005
   164   0   1   0.0                -42.3705                -41.0565     -47.056499999999986
   165   0   2   0.0     -41.701500000000003                -40.2395     -48.969500000000011
   166   0   2   0.0                -35.6295                -36.9435     -48.969500000000011
   167   0   2   0.0     -41.701500000000003                -40.2395     -46.418499999999995
   168   0   2   0.0                -35.6295                -36.9435     -46.418499999999995
   169   0   1   0.0                -42.3705                -41.0565      -45.78149999999998
   170   0   1   0.0                -42.3705                -41.0565     -44.506499999999988
   171   0   2   0.0     -41.701500000000003                -40.2395     -46.419499999999999
   172   0   2   0.0                -35.6295                -36.9435     -46.419499999999999
   173   0   2   0.0     -41.701500000000003                -40.2395     -43.868499999999997
   174   0   2   0.0                -35.6295                -36.9435     -43.868499999999997
   175   0   1   0.0                -42.3705                -41.0565     -43.231499999999997
   176   0   1   0.0                -42.3705                -41.0565     -41.956499999999991
   177   0   2   0.0     -41.701500000000003                -40.2395     -43.869500000000002
   178   0   2   0.0                -35.6295                -36.9435     -43.869500000000002
   179   0   2   0.0     -41.701500000000003                -40.2395                -41.3185
   180   0   2   0.0                -35.6295                -36.9435                -41.3185
   181   0   1   0.0                -42.3705                -41.0565     -40.681500000000014
   182   0   1   0.0                -42.3705                -41.0565     -39.406499999999994
   183   0   2   0.0     -41.701500000000003                -40.2395     -41.319500000000019
   184   0   2   0.0                -35.6295                -36.9435     -41.319500000000019
   185   0   2   0.0     -41.701500000000003                -40.2395     -38.768500000000003
   186   0   2   0.0                -35.6295                -36.9435     -38.768500000000003
   187   0   1   0.0                -42.3705                -41.0565     -38.131499999999988
   188   0   1   0.0                -42.3705                -41.0565     -36.856499999999997
   189   0   2   0.0     -41.701500000000003                -40.2395     -38.769500000000008
   190   0   2   0.0                -35.6295                -36.9435     -38.769500000000008
   191   0   2   0.0     -41.701500000000003                -40.2395     -36.218500000000006
   192   0   2   0.0                -35.6295                -36.9435     -36.218500000000006
   193   0   1   0.0                -42.3705                -41.0565     -35.581499999999991
   194   0   1   0.0                -42.3705                -41.0565     -34.306499999999986
   195   0   2   0.0     -41.701500000000003                -40.2395     -36.219499999999996
   196   0   2   0.0                -35.6295                -36.9435     -36.219499999999996
   197   0   2   0.0     -41.701500000000003                -40.2395     -33.668499999999995
   198   0   2   0.0                -35.6295                -36.9435     -33.668499999999995
   199   0   1   0.0                -42.3705                -41.0565     -33.031500000000008
   200   0   1   0.0                -42.3705                -41.0565     -31.756499999999988
   201   0   2   0.0     -41.701500000000003                -40.2395     -33.669500000000014
   202   0   2   0.0                -35.6295                -36.9435     -33.669500000000014
   203   0   2   0.0     -41.701500000000003                -40.2395     -31.118499999999997
   204   0   2   0.0                -35.6295                -36.9435     -31.118499999999997
   205   0   1   0.0                -42.3705                -41.0565     -30.481499999999983
   206   0   1   0.0                -42.3705                -41.0565     -29.206499999999991
   207   0   2   0.0     -41.701500000000003                -40.2395     -31.119500000000002
   208   0   2   0.0                -35.6295                -36.9435     -31.119500000000002
   209   0   2   0.0     -41.701500000000003                -40.2395                -28.5685
   210   0   2   0.0                -35.6295                -36.9435                -28.5685
   211   0   1   0.0                -42.3705                -41.0565     -27.931499999999986
   212   0   1   0.0                -42.3705                -41.0565      -26.65649999999998
   213   0   2   0.0     -41.701500000000003                -40.2395     -28.569499999999991
   214   0   2   0.0                -35.6295                -36.9435     -28.569499999999991
   215   0   2   0.0     -41.701500000000003                -40.2395     -26.018499999999989
   216   0   2   0.0                -35.6295                -36.9435     -26.018499999999989
   217   0   1   0.0                -42.3705                -41.0565     -25.381500000000017
   218   0   1   0.0                -42.3705                -41.0565     -24.106499999999997
   219   0   2   0.0     -41.701500000000003                -40.2395     -26.019500000000022
   220   0   2   0.0                -35.6295                -36.9435     -26.019500000000022
   221   0   2   0.0     -41.701500000000003                -40.2395     -23.468500000000006
   222   0   2   0.0                -35.6295                -36.9435     -23.468500000000006
   223   0   1   0.0                -42.3705                -41.0565     -22.831499999999991
   224   0   1   0.0                -42.3705                -41.0565                -21.5565
   225   0   2   0.0     -41.701500000000003                -40.2395     -23.469499999999996
   226   0   2   0.0                -35.6295                -36.9435     -23.469499999999996
   227   0   2   0.0     -41.701500000000003                -40.2395     -20.918500000000009
   228   0   2   0.0                -35.6295                -36.9435     -20.918500000000009
   229   0   1   0.0                -42.3705                -41.0565     -20.281499999999994
   230   0   1   0.0                -42.3705                -41.0565     -19.006499999999988
   231   0   2   0.0     -41.701500000000003                -40.2395     -20.919499999999999
   232   0   2   0.0                -35.6295                -36.9435     -20.919499999999999
   233   0   2   0.0     -41.701500000000003                -40.2395     -18.368499999999997
   234   0   2   0.0                -35.6295                -36.9435     -18.368499999999997
   235   0   1   0.0                -42.3705                -41.0565     -17.731500000000011
   236   0   1   0.0                -42.3705                -41.0565     -16.456499999999991
   237   0   2   0.0     -41.701500000000003                -40.2395     -18.369500000000016
   238   0   2   0.0                -35.6295                -36.9435     -18.369500000000016
   239   0   2   0.0     -41.701500000000003                -40.2395                -15.8185
   240   0   2   0.0                -35.6295                -36.9435                -15.8185
   241   0   1   0.0                -42.3705                -41.0565     -15.181499999999986
   242   0   1   0.0                -42.3705                -41.0565     -13.906499999999994
   243   0   2   0.0     -41.701500000000003                -40.2395     -15.819499999999991
   244   0   2   0.0                -35.6295                -36.9435     -15.819499999999991
   245   0   2   0.0     -41.701500000000003                -40.2395     -13.268500000000003
   246   0   2   0.0                -35.6295                -36.9435     -13.268500000000003
   247   0   1   0.0                -42.3705                -41.0565     -12.631499999999988
   248   0   1   0.0                -42.3705                -41.0565     -11.356499999999983
   249   0   2   0.0     -41.701500000000003                -40.2395     -13.269499999999994
   250   0   2   0.0                -35.6295                -36.9435     -13.269499999999994
   251   0   2   0.0     -41.701500000000003                -40.2395     -10.718499999999992
   252   0   2   0.0                -35.6295                -36.9435     -10.718499999999992
   253   0   1   0.0                -42.3705                -41.0565      -10.08150000000002
   254   0   1   0.0                -42.3705                -41.0565     -8.8064999999999998
   255   0   2   0.0     -41.701500000000003                -40.2395     -10.719500000000011
   256   0   2   0.0                -35.6295                -36.9435     -10.719500000000011
   257   0   2   0.0     -41.701500000000003                -40.2395     -8.1685000000000088
   258   0   2   0.0                -35.6295                -36.9435     -8.1685000000000088
   259   0   1   0.0                -42.3705                -41.0565     -7.5314999999999941
   260   0   1   0.0                -42.3705                -41.0565     -6.2565000000000026
   261   0   2   0.0     -41.701500000000003                -40.2395     -8.1694999999999993
   262   0   2   0.0                -35.6295                -36.9435     -8.1694999999999993
   263   0   2   0.0     -41.701500000000003                -40.2395     -5.6185000000000116
   264   0   2   0.0                -35.6295                -36.9435     -5.6185000000000116
   265   0   1   0.0                -42.3705                -41.0565     -4.9814999999999969
   266   0   1   0.0                -42.3705                -41.0565     -3.7064999999999912
   267   0   2   0.0     -41.701500000000003                -40.2395     -5.6195000000000022
   268   0   2   0.0                -35.6295                -36.9435     -5.6195000000000022
   269   0   2   0.0     -41.701500000000003                -40.2395     -3.0685000000000002
   270   0   2   0.0                -35.6295                -36.9435     -3.0685000000000002
   271   0   1   0.0                -42.3705                -41.0565      -2.431500000000014
   272   0   1   0.0                -42.3705                -41.0565     -1.1564999999999941
   273   0   2   0.0     -41.701500000000003                -40.2395      -3.069500000000005
   274   0   2   0.0                -35.6295                -36.9435      -3.069500000000005
   275   0   2   0.0     -41.701500000000003                -40.2395    -0.51850000000000307
   276   0   2   0.0                -35.6295                -36.9435    -0.51850000000000307
   277   0   1   0.0                -42.3705                -41.0565      0.1185000000000116
   278   0   1   0.0                -42.3705                -41.0565      1.3935000000000031
   279   0   2   0.0     -41.701500000000003                -40.2395    -0.51949999999999363
   280   0   2   0.0                -35.6295                -36.9435    -0.51949999999999363
   281   0   2   0.0     -41.701500000000003                -40.2395      2.0314999999999941
   282   0   2   0.0                -35.6295                -36.9435      2.0314999999999941
   283   0   1   0.0                -42.3705                -41.0565      2.6685000000000088
   284   0   1   0.0                -42.3705                -41.0565      3.9435000000000144
   285   0   2   0.0     -41.701500000000003                -40.2395      2.0305000000000035
   286   0   2   0.0                -35.6295                -36.9435      2.0305000000000035
   287   0   2   0.0     -41.701500000000003                -40.2395      4.5815000000000055
   288   0   2   0.0                -35.6295                -36.9435      4.5815000000000055
   289   0   1   0.0                -42.3705                -41.0565      5.2184999999999917
   290   0   1   0.0                -42.3705                -41.0565      6.4934999999999974
   291   0   2   0.0     -41.701500000000003                -40.2395      4.5804999999999865
   292   0   2   0.0                -35.6295                -36.9435      4.5804999999999865
   293   0   2   0.0     -41.701500000000003                -40.2395      7.1314999999999884
   294   0   2   0.0                -35.6295                -36.9435      7.1314999999999884
   295   0   1   0.0                -42.3705                -41.0565      7.7685000000000031
   296   0   1   0.0                -42.3705                -41.0565      9.0435000000000088
   297   0   2   0.0     -41.701500000000003                -40.2395      7.1304999999999978
   298   0   2   0.0                -35.6295                -36.9435      7.1304999999999978
   299   0   2   0.0     -41.701500000000003                -40.2395      9.6814999999999856
   300   0   2   0.0                -35.6295                -36.9435      9.6814999999999856
   301   0   1   0.0                -42.3705                -41.0565      10.318499999999972
   302   0   1   0.0                -42.3705                -41.0565      11.593499999999977
   303   0   2   0.0     -41.701500000000003                -40.2395       9.680499999999995
   304   0   2   0.0                -35.6295                -36.9435       9.680499999999995
   305   0   2   0.0     -41.701500000000003                -40.2395      12.231499999999983
   306   0   2   0.0                -35.6295                -36.9435      12.231499999999983
   307   0   1   0.0                -42.3705                -41.0565      12.868499999999983
   308   0   1   0.0                -42.3705                -41.0565      14.143499999999989
   309   0   2   0.0     -41.701500000000003                -40.2395      12.230499999999978
   310   0   2   0.0                -35.6295                -36.9435      12.230499999999978
   311   0   2   0.0     -41.701500000000003                -40.2395      14.781499999999994
   312   0   2   0.0                -35.6295                -36.9435      14.781499999999994
   313   0   1   0.0                -42.3705                -41.0565      15.418500000000023
   314   0   1   0.0                -42.3705                -41.0565      16.693500000000029
   315   0   2   0.0     -41.701500000000003                -40.2395      14.780500000000018
   316   0   2   0.0                -35.6295                -36.9435      14.780500000000018
   317   0   2   0.0     -41.701500000000003                -40.2395      17.331500000000034